# vtk DataFile Version 2.0
4-mass spring system
ASCII
DATASET UNSTRUCTURED_GRID
POINTS   3   float
0.0 0.0 1.0
0.0 0.0 1.9848594309839707
0.0 0.0 2.9807585685047466
CELLS   3   6
1 0
1 1
1 2
CELL_TYPES   3
1
1
1
POINT_DATA   3
SCALARS point_scalars float
LOOKUP_TABLE default
0.0
-0.01514056901602929
-0.0192414314952532
