# vtk DataFile Version 2.0
4-mass spring system
ASCII
DATASET UNSTRUCTURED_GRID
POINTS   3   float
0.0 0.0 1.0
0.0 0.0 1.9888478635575197
0.0 0.0 2.9871544347372962
CELLS   3   6
1 0
1 1
1 2
CELL_TYPES   3
1
1
1
POINT_DATA   3
SCALARS point_scalars float
LOOKUP_TABLE default
0.0
-0.011152136442480264
-0.012845565262703884
