# vtk DataFile Version 2.0
4-mass spring system
ASCII
DATASET UNSTRUCTURED_GRID
POINTS   3   float
0.0 0.0 1.0
0.0 0.0 2.0171804235641533
0.0 0.0 3.027785422530311
CELLS   3   6
1 0
1 1
1 2
CELL_TYPES   3
1
1
1
POINT_DATA   3
SCALARS point_scalars float
LOOKUP_TABLE default
0.0
0.01718042356415344
0.027785422530311008
