# vtk DataFile Version 2.0
4-mass spring system
ASCII
DATASET UNSTRUCTURED_GRID
POINTS   3   float
0.0 0.0 1
0.0 -0.6487314170722059 2
0.0 -1.0492026558075416 3
CELLS   3   6
1 0
1 1
1 2
CELL_TYPES   3
1
1
1
POINT_DATA   3
SCALARS point_scalars float
LOOKUP_TABLE default
0.0
-0.0648731417072206
-0.10492026558075417
