# vtk DataFile Version 2.0
3-mass spring system
ASCII
DATASET POLYDATA
POINTS 3 float
0.0 0.0 1
0.0 -4.0191681989498076e+121 2
0.0 2.3696081456975117e+121 3
VERTICES 3 6
1 0
1 1
1 2
POINT_DATA 3
SCALARS displacement float 1
LOOKUP_TABLE default
0.0
-4.0191681989498075e+120
2.3696081456975117e+120
