# vtk DataFile Version 2.0
3-mass spring system
ASCII
DATASET POLYDATA
POINTS 3 float
0.0 0.0 1
0.0 -7.440419502279982e+145 2
0.0 4.386698388143138e+145 3
VERTICES 3 6
1 0
1 1
1 2
POINT_DATA 3
SCALARS displacement float 1
LOOKUP_TABLE default
0.0
-7.440419502279982e+144
4.3866983881431384e+144
